
Host: Mac

Timers On : Wed May 14 16:01:39 2025
Timers Off: Wed May 14 16:29:23 2025

Wall Time:     1663.95 seconds

                                                       Time (seconds)
Module                                       User      System        Wall        Calls

--------------------------------------------------------------------------------------

**************************************************************************************
